                               Psi4 1.3.2 release

  ==> Input File <==

--------------------------------------------------------------------------
#! pcm

molecule mol {

0 1
C -4.065720085720828 0.627885683772884 -0.5520923061937428
C -2.6607951990742476 -0.03496192643491766 -0.6222306394533014
C -4.653395815121645 -0.39024019249235015 1.4429335095952838
C -3.217108675946841 -0.8039808992848329 1.6363573012267147
C -2.676723950173156 -1.1639305592682074 -1.6664104510737732
C -1.8185437091454284 2.139709164558776 -1.7245194271473572
C 0.8374611266753648 1.513793203434038 -1.0679806366244406
C 2.736387940296631 -0.11259433680174304 -0.6513662067028584
C 3.9729248888486777 -0.3999627562165702 0.10507620579021922
C 5.7433983274902305 -1.9240391872339073 0.5773378861086232
C 6.294715917780482 -1.0372859708454263 1.5046547244632695
Cl 7.758838625143972 -1.4584425870472901 2.373769177857443
N 4.607497255853329 -1.5901182138352807 -0.09120012387116376
C 5.662387662235535 0.18559734866260097 1.7364523494309607
C 4.496039688554127 0.5100381553153771 1.040264219384459
O 2.1694649654026823 -1.051963467434041 -1.2734744184350606
N 2.204978054314583 1.2208565180241675 -0.7319249989829767
C -0.20848288559580544 0.6496849148819802 -0.6969616346898599
C 0.5345945125192849 2.7062368663657606 -1.735698383238583
C -0.7836747109815806 3.009875550387297 -2.07234124103637
C -1.5530030462412812 0.9558684346214857 -1.0019276525507927
N -2.347870079084695 -0.6270435416563693 0.6867594718659188
N -2.7946622320257135 -1.3465578592918162 2.8868634137876636
O -4.985293300593001 -0.24203061305489493 0.0754281722730508
H -4.4427252754957856 0.8427911234247197 -1.5749220882980353
H -4.018968288883168 1.6013240944674743 -0.009479299008229379
H -5.307782068055727 -1.1794696219570082 1.8684152047448488
H -4.856025820271544 0.5504342835757426 2.0008183793907848
H -1.6951735709726905 -1.6848247225609416 -1.6933670246048407
H -3.456886449947746 -1.915023518157404 -1.4173590871676813
H -2.8870114208144697 -0.7572958039273742 -2.6793283266735037
H -2.820727674575362 2.4045677706988466 -2.0283624358387105
H 6.21501161474443 -2.87907684531416 0.38721092122701317
H 6.069532966215395 0.8818069509511038 2.458640614152346
H 4.005556460747221 1.451258871857949 1.2490472861894708
H 2.8723728174733503 2.0216570455140457 -0.6618685103451437
H 0.02278838324899912 -0.2573463147466614 -0.15459552573966248
H 1.3252789011131103 3.39153415379625 -2.014507373814994
H -1.0046812051732308 3.9218938833694263 -2.611952574919923
H -1.7981750285190703 -1.6214451654066162 3.035629340398304
H -3.4757996162433367 -1.4720212529691372 3.668212188524687
no_reorient
no_com
units angstrom

}

set {
    basis sto-3g
    scf_type pk
    pcm true
    pcm_scf_type total
}

pcm = {
    Units =  Angstrom
    Medium {
    SolverType = IEFPCM
    Solvent = Water
    }

    Cavity {
    RadiiSet = UFF
    Type = GePol
    Scaling = false
    Area = 0.3
    Mode = Implicit
    }
}

energy_pte, wfn = energy('scf', return_wfn=True)--------------------------------------------------------------------------

*** tstart() called on takayuki-XPS-15-7590
*** at Sun Aug 11 10:33:55 2019

   => Loading Basis Set <=

    Name: STO-3G
    Role: ORBITAL
    Keyword: BASIS
    atoms 1-11, 14-15, 18-21 entry C          line    61 file /home/takayuki/anaconda3/envs/chemo37/share/psi4/basis/sto-3g.gbs
    atoms 12                 entry CL         line   195 file /home/takayuki/anaconda3/envs/chemo37/share/psi4/basis/sto-3g.gbs
    atoms 13, 17, 22-23      entry N          line    71 file /home/takayuki/anaconda3/envs/chemo37/share/psi4/basis/sto-3g.gbs
    atoms 16, 24             entry O          line    81 file /home/takayuki/anaconda3/envs/chemo37/share/psi4/basis/sto-3g.gbs
    atoms 25-41              entry H          line    19 file /home/takayuki/anaconda3/envs/chemo37/share/psi4/basis/sto-3g.gbs

         ---------------------------------------------------------
                                   SCF
               by Justin Turney, Rob Parrish, Andy Simmonett
                          and Daniel G. A. Smith
                              RHF Reference
                        1 Threads,    500 MiB Core
         ---------------------------------------------------------

  ==> Geometry <==

    Molecular point group: c1
    Full point group: C1

    Geometry (in Angstrom), charge = 0, multiplicity = 1:

       Center              X                  Y                   Z               Mass
    ------------   -----------------  -----------------  -----------------  -----------------
         C           -4.065720085721     0.627885683773    -0.552092306194    12.000000000000
         C           -2.660795199074    -0.034961926435    -0.622230639453    12.000000000000
         C           -4.653395815122    -0.390240192492     1.442933509595    12.000000000000
         C           -3.217108675947    -0.803980899285     1.636357301227    12.000000000000
         C           -2.676723950173    -1.163930559268    -1.666410451074    12.000000000000
         C           -1.818543709145     2.139709164559    -1.724519427147    12.000000000000
         C            0.837461126675     1.513793203434    -1.067980636624    12.000000000000
         C            2.736387940297    -0.112594336802    -0.651366206703    12.000000000000
         C            3.972924888849    -0.399962756217     0.105076205790    12.000000000000
         C            5.743398327490    -1.924039187234     0.577337886109    12.000000000000
         C            6.294715917780    -1.037285970845     1.504654724463    12.000000000000
         CL           7.758838625144    -1.458442587047     2.373769177857    34.968852682000
         N            4.607497255853    -1.590118213835    -0.091200123871    14.003074004430
         C            5.662387662236     0.185597348663     1.736452349431    12.000000000000
         C            4.496039688554     0.510038155315     1.040264219384    12.000000000000
         O            2.169464965403    -1.051963467434    -1.273474418435    15.994914619570
         N            2.204978054315     1.220856518024    -0.731924998983    14.003074004430
         C           -0.208482885596     0.649684914882    -0.696961634690    12.000000000000
         C            0.534594512519     2.706236866366    -1.735698383239    12.000000000000
         C           -0.783674710982     3.009875550387    -2.072341241036    12.000000000000
         C           -1.553003046241     0.955868434621    -1.001927652551    12.000000000000
         N           -2.347870079085    -0.627043541656     0.686759471866    14.003074004430
         N           -2.794662232026    -1.346557859292     2.886863413788    14.003074004430
         O           -4.985293300593    -0.242030613055     0.075428172273    15.994914619570
         H           -4.442725275496     0.842791123425    -1.574922088298     1.007825032230
         H           -4.018968288883     1.601324094467    -0.009479299008     1.007825032230
         H           -5.307782068056    -1.179469621957     1.868415204745     1.007825032230
         H           -4.856025820272     0.550434283576     2.000818379391     1.007825032230
         H           -1.695173570973    -1.684824722561    -1.693367024605     1.007825032230
         H           -3.456886449948    -1.915023518157    -1.417359087168     1.007825032230
         H           -2.887011420814    -0.757295803927    -2.679328326674     1.007825032230
         H           -2.820727674575     2.404567770699    -2.028362435839     1.007825032230
         H            6.215011614744    -2.879076845314     0.387210921227     1.007825032230
         H            6.069532966215     0.881806950951     2.458640614152     1.007825032230
         H            4.005556460747     1.451258871858     1.249047286189     1.007825032230
         H            2.872372817473     2.021657045514    -0.661868510345     1.007825032230
         H            0.022788383249    -0.257346314747    -0.154595525740     1.007825032230
         H            1.325278901113     3.391534153796    -2.014507373815     1.007825032230
         H           -1.004681205173     3.921893883369    -2.611952574920     1.007825032230
         H           -1.798175028519    -1.621445165407     3.035629340398     1.007825032230
         H           -3.475799616243    -1.472021252969     3.668212188525     1.007825032230

  Running in c1 symmetry.

  Rotational constants: A =      0.01393  B =      0.00262  C =      0.00237 [cm^-1]
  Rotational constants: A =    417.62574  B =     78.55795  C =     70.93951 [MHz]
  Nuclear repulsion = 2017.736439521642978

  Charge       = 0
  Multiplicity = 1
  Electrons    = 180
  Nalpha       = 90
  Nbeta        = 90

  ==> Algorithm <==

  SCF Algorithm Type is PK.
  DIIS enabled.
  MOM disabled.
  Fractional occupation disabled.
  Guess Type is SAD.
  Energy threshold   = 1.00e-06
  Density threshold  = 1.00e-06
  Integral threshold = 0.00e+00

  ==> Primary Basis <==

  Basis Set: STO-3G
    Blend: STO-3G
    Number of shells: 91
    Number of basis function: 141
    Number of Cartesian functions: 141
    Spherical Harmonics?: true
    Max angular momentum: 1

  **PSI4:PCMSOLVER Interface Active**

-----------------------------------------------------------------------

    Orbital Energies [Eh]
    ---------------------

    Doubly Occupied:

       1A   -103.722258     2A    -20.280743     3A    -20.245447
       4A    -15.365320     5A    -15.358274     6A    -15.325559
       7A    -15.267141     8A    -11.166158     9A    -11.128344
      10A    -11.119914    11A    -11.109946    12A    -11.109336
      13A    -11.106973    14A    -11.095707    15A    -11.094164
      16A    -11.087613    17A    -11.081673    18A    -11.073654
      19A    -11.042162    20A    -11.040976    21A    -11.032945
      22A    -11.024786    23A    -11.022506    24A    -11.020647
      25A    -10.403990    26A     -7.848232    27A     -7.842630
      28A     -7.842538    29A     -1.331055    30A     -1.311375
      31A     -1.216371    32A     -1.177043    33A     -1.155284
      34A     -1.101702    35A     -1.099837    36A     -1.067779
      37A     -1.030144    38A     -1.001272    39A     -0.976097
      40A     -0.948890    41A     -0.936336    42A     -0.911420
      43A     -0.858248    44A     -0.841750    45A     -0.818462
      46A     -0.802977    47A     -0.773005    48A     -0.746420
      49A     -0.722428    50A     -0.675788    51A     -0.671345
      52A     -0.657840    53A     -0.629697    54A     -0.625441
      55A     -0.617889    56A     -0.613818    57A     -0.604695
      58A     -0.595110    59A     -0.581400    60A     -0.573668
      61A     -0.563209    62A     -0.557014    63A     -0.543283
      64A     -0.541811    65A     -0.533574    66A     -0.529801
      67A     -0.514202    68A     -0.503041    69A     -0.495596
      70A     -0.493382    71A     -0.483965    72A     -0.476064
      73A     -0.470826    74A     -0.455194    75A     -0.446837
      76A     -0.437893    77A     -0.424373    78A     -0.417911
      79A     -0.411325    80A     -0.403099    81A     -0.367887
      82A     -0.361052    83A     -0.351349    84A     -0.338287
      85A     -0.332642    86A     -0.298576    87A     -0.282130
      88A     -0.273252    89A     -0.259671    90A     -0.237181

  @RHF Final Energy: -1462.96333834482834

   => Energetics <=

    Nuclear Repulsion Energy =           2017.7364395216429784
    One-Electron Energy =               -6025.5973910876064110
    Two-Electron Energy =                2544.9213137932647442
    PCM Polarization Energy =              -0.0237005721295118
    Total Energy =                      -1462.9633383448283439

  Dipole Moment: [D]
     X:    -0.5419      Y:     4.6575      Z:     3.3712     Total:     5.7750

*** Psi4 exiting successfully. Buy a developer a beer!
